      -----------------------------------------------------------      
     |                   =====================                   |     
     |                           x T B                           |     
     |                   =====================                   |     
     |                         S. Grimme                         |     
     |          Mulliken Center for Theoretical Chemistry        |     
     |                    University of Bonn                     |     
      -----------------------------------------------------------      

   * xtb version 6.6.1 (8d0f1dd) compiled by 'conda@1efc2f54142f' on 2023-08-01

   xtb is free software: you can redistribute it and/or modify it under
   the terms of the GNU Lesser General Public License as published by
   the Free Software Foundation, either version 3 of the License, or
   (at your option) any later version.
   
   xtb is distributed in the hope that it will be useful,
   but WITHOUT ANY WARRANTY; without even the implied warranty of
   MERCHANTABILITY or FITNESS FOR A PARTICULAR PURPOSE.  See the
   GNU Lesser General Public License for more details.
   
   Cite this work as:
   * C. Bannwarth, E. Caldeweyher, S. Ehlert, A. Hansen, P. Pracht,
     J. Seibert, S. Spicher, S. Grimme, WIREs Comput. Mol. Sci., 2020, 11,
     e01493. DOI: 10.1002/wcms.1493
   
   for GFN2-xTB:
   * C. Bannwarth, S. Ehlert and S. Grimme., J. Chem. Theory Comput., 2019,
     15, 1652-1671. DOI: 10.1021/acs.jctc.8b01176
   for GFN1-xTB:
   * S. Grimme, C. Bannwarth, P. Shushkov, J. Chem. Theory Comput., 2017,
     13, 1989-2009. DOI: 10.1021/acs.jctc.7b00118
   for GFN0-xTB:
   * P. Pracht, E. Caldeweyher, S. Ehlert, S. Grimme, ChemRxiv, 2019, preprint.
     DOI: 10.26434/chemrxiv.8326202.v1
   for GFN-FF:
   * S. Spicher and S. Grimme, Angew. Chem. Int. Ed., 2020, 59, 15665-15673.
     DOI: 10.1002/anie.202004239
   
   for ALPB and GBSA implicit solvation:
   * S. Ehlert, M. Stahn, S. Spicher, S. Grimme, J. Chem. Theory Comput.,
     2021, 17, 4250-4261. DOI: 10.1021/acs.jctc.1c00471
   
   for DFT-D4:
   * E. Caldeweyher, C. Bannwarth and S. Grimme, J. Chem. Phys., 2017,
     147, 034112. DOI: 10.1063/1.4993215
   * E. Caldeweyher, S. Ehlert, A. Hansen, H. Neugebauer, S. Spicher,
     C. Bannwarth and S. Grimme, J. Chem. Phys., 2019, 150, 154122.
     DOI: 10.1063/1.5090222
   * E. Caldeweyher, J.-M. Mewes, S. Ehlert and S. Grimme, Phys. Chem. Chem. Phys.
     2020, 22, 8499-8512. DOI: 10.1039/D0CP00502A
   
   for sTDA-xTB:
   * S. Grimme and C. Bannwarth, J. Chem. Phys., 2016, 145, 054103.
     DOI: 10.1063/1.4959605
   
   in the mass-spec context:
   * V. Asgeirsson, C. Bauer and S. Grimme, Chem. Sci., 2017, 8, 4879.
     DOI: 10.1039/c7sc00601b
   * J. Koopman and S. Grimme, ACS Omega 2019, 4, 12, 15120-15133.
     DOI: 10.1021/acsomega.9b02011
   
   for metadynamics refer to:
   * S. Grimme, J. Chem. Theory Comput., 2019, 155, 2847-2862
     DOI: 10.1021/acs.jctc.9b00143
   
   for SPH calculations refer to:
   * S. Spicher and S. Grimme, J. Chem. Theory Comput., 2021, 17, 1701-1714
     DOI: 10.1021/acs.jctc.0c01306
   
   with help from (in alphabetical order)
   P. Atkinson, C. Bannwarth, F. Bohle, G. Brandenburg, E. Caldeweyher
   M. Checinski, S. Dohm, S. Ehlert, S. Ehrlich, I. Gerasimov, C. Hölzer
   A. Katbashev, J. Koopman, C. Lavigne, S. Lehtola, F. März, M. Müller,
   F. Musil, H. Neugebauer, J. Pisarek, C. Plett, P. Pracht, F. Pultar,
   J. Seibert, P. Shushkov, S. Spicher, M. Stahn, M. Steiner, T. Strunk,
   J. Stückrath, T. Rose, and J. Unsleber
   
 * started run on 2024/07/09 at 16:35:44.954     

           -------------------------------------------------
          |                Calculation Setup                |
           -------------------------------------------------

          program call               : /home/atarzia/miniforge3/envs/desymm_finder/bin/xtb /home/atarzia/thesource/stko/examples/output_directory/example_xtb_out/input_structure.xyz --gfn 2 --vipea --parallel 1 --etemp 300 --alpb dmso --chrg 0 --uhf 0 -I det_control.in
          coordinate file            : /home/atarzia/thesource/stko/examples/output_directory/example_xtb_out/input_structure.xyz
          omp threads                :                     1

   ID    Z sym.   atoms
    1    7 N      1, 4, 7
    2    6 C      2, 3, 5, 6
    3    1 H      8-20

           -------------------------------------------------
          |                 G F N 2 - x T B                 |
           -------------------------------------------------

        Reference                      10.1021/acs.jctc.8b01176
      * Hamiltonian:
        H0-scaling (s, p, d)           1.850000    2.230000    2.230000
        zeta-weighting                 0.500000
      * Dispersion:
        s8                             2.700000
        a1                             0.520000
        a2                             5.000000
        s9                             5.000000
      * Repulsion:
        kExp                           1.500000    1.000000
        rExp                           1.000000
      * Coulomb:
        alpha                          2.000000
        third order                    shell-resolved
        anisotropic                    true
        a3                             3.000000
        a5                             4.000000
        cn-shift                       1.200000
        cn-exp                         4.000000
        max-rad                        5.000000

      * Solvation model:               ALPB
        Solvent                        dmso
        Parameter file                 internal GFN2-xTB/ALPB
        Dielectric constant                4.6680E+01
        Reference state                gsolv [1 M gas/solution]
        Free energy shift                  7.1947E-03 Eh       4.5147E+00 kcal/mol
        Temperature                        2.9815E+02 K
        Density                            1.1000E+00 kg/L
        Solvent mass                       7.8130E+01 g/mol
        Interaction kernel             P16
        Born radius scaling (c1)           1.7927E+00
        Born radii integrator          GBOBC
        Born offset                        0.0000E+00 a0       0.0000E+00 AA
        H-bond correction              true
        Ion screening                  false
        Surface tension                    1.0000E-05 Eh       1.5569E+01 dyn/cm
        Grid points                               230 per atom

          ...................................................
          :                      SETUP                      :
          :.................................................:
          :  # basis functions                  41          :
          :  # atomic orbitals                  41          :
          :  # shells                           27          :
          :  # electrons                        44          :
          :  max. iterations                   250          :
          :  Hamiltonian                  GFN2-xTB          :
          :  restarted?                      false          :
          :  GBSA solvation                   true          :
          :  PC potential                    false          :
          :  electronic temp.          300.0000000     K    :
          :  accuracy                    1.0000000          :
          :  -> integral cutoff          0.2500000E+02      :
          :  -> integral neglect         0.1000000E-07      :
          :  -> SCF convergence          0.1000000E-05 Eh   :
          :  -> wf. convergence          0.1000000E-03 e    :
          :  Broyden damping             0.4000000          :
          ...................................................

 iter      E             dE          RMSdq      gap      omega  full diag
   1    -24.1459823 -0.241460E+02  0.315E+00    9.21       0.0  T
   2    -24.1626344 -0.166521E-01  0.184E+00    9.35       1.0  T
   3    -24.1637838 -0.114936E-02  0.469E-01    9.31       1.0  T
   4    -24.1639975 -0.213741E-03  0.847E-02    9.26       1.0  T
   5    -24.1640250 -0.274602E-04  0.438E-02    9.25       1.0  T
   6    -24.1640262 -0.115768E-05  0.735E-03    9.26       3.0  T
   7    -24.1640262 -0.637606E-07  0.236E-03    9.26       9.5  T
   8    -24.1640262 -0.325970E-08  0.865E-04    9.26      25.9  T
   9    -24.1640262 -0.154516E-08  0.212E-04    9.26     105.4  T

   *** convergence criteria satisfied after 9 iterations ***

         #    Occupation            Energy/Eh            Energy/eV
      -------------------------------------------------------------
         1        2.0000           -0.6372704             -17.3410
       ...           ...                  ...                  ...
        16        2.0000           -0.4638636             -12.6224
        17        2.0000           -0.4530316             -12.3276
        18        2.0000           -0.4327467             -11.7756
        19        2.0000           -0.4288143             -11.6686
        20        2.0000           -0.3602513              -9.8029
        21        2.0000           -0.3596351              -9.7862
        22        2.0000           -0.3353031              -9.1241 (HOMO)
        23                          0.0049114               0.1336 (LUMO)
        24                          0.0234705               0.6387
        25                          0.0444584               1.2098
        26                          0.0735470               2.0013
        27                          0.0827188               2.2509
       ...                                ...                  ...
        41                          0.3262093               8.8766
      -------------------------------------------------------------
                  HL-Gap            0.3402145 Eh            9.2577 eV
             Fermi-level           -0.1651959 Eh           -4.4952 eV

 SCC (total)                   0 d,  0 h,  0 min,  0.051 sec
 SCC setup                      ...        0 min,  0.001 sec (  1.295%)
 Dispersion                     ...        0 min,  0.000 sec (  0.380%)
 classical contributions        ...        0 min,  0.000 sec (  0.118%)
 integral evaluation            ...        0 min,  0.010 sec ( 18.777%)
 iterations                     ...        0 min,  0.025 sec ( 49.400%)
 molecular gradient             ...        0 min,  0.008 sec ( 15.683%)
 printout                       ...        0 min,  0.000 sec (  0.279%)

         :::::::::::::::::::::::::::::::::::::::::::::::::::::
         ::                     SUMMARY                     ::
         :::::::::::::::::::::::::::::::::::::::::::::::::::::
         :: total energy             -23.904873809014 Eh    ::
         :: total w/o Gsasa/hb       -23.891831979197 Eh    ::
         :: gradient norm              0.100624940217 Eh/a0 ::
         :: HOMO-LUMO gap              9.257708015465 eV    ::
         ::.................................................::
         :: SCC energy               -24.164026234285 Eh    ::
         :: -> isotropic ES            0.033476836840 Eh    ::
         :: -> anisotropic ES          0.010783325424 Eh    ::
         :: -> anisotropic XC          0.024214515899 Eh    ::
         :: -> dispersion             -0.011493164335 Eh    ::
         :: -> Gsolv                  -0.013797943534 Eh    ::
         ::    -> Gelec               -0.000756113717 Eh    ::
         ::    -> Gsasa               -0.016608193611 Eh    ::
         ::    -> Ghb                 -0.003628330254 Eh    ::
         ::    -> Gshift               0.007194694049 Eh    ::
         :: repulsion energy           0.259153494435 Eh    ::
         :: add. restraining           0.000000000000 Eh    ::
         :: total charge               0.000000000000 e     ::
         :::::::::::::::::::::::::::::::::::::::::::::::::::::

           ------------------------------------------------- 
          |        vertical delta SCC IP calculation        |
           ------------------------------------------------- 

 iter      E             dE          RMSdq      gap      omega  full diag
   1    -23.7107262 -0.237107E+02  0.218E+00    9.26       0.0  T
   2    -23.6463447  0.643815E-01  0.265E+00    9.12       1.0  T
   3    -23.6660373 -0.196926E-01  0.258E+00    9.20       1.0  T
   4    -23.7748390 -0.108802E+00  0.970E-01    9.88       1.0  T
   5    -23.7099012  0.649378E-01  0.179E+00    9.87       1.0  T
   6    -23.7510106 -0.411095E-01  0.143E+00    9.76       1.0  T
   7    -23.7729055 -0.218948E-01  0.881E-01    9.79       1.0  T
   8    -23.7740778 -0.117230E-02  0.825E-01    9.84       1.0  T
   9    -23.7761367 -0.205897E-02  0.746E-01    9.88       1.0  T
  10    -23.7802852 -0.414847E-02  0.595E-01    9.93       1.0  T
  11    -23.7862086 -0.592338E-02  0.338E-01    9.95       1.0  T
  12    -23.7877447 -0.153612E-02  0.232E-01    9.95       1.0  T
  13    -23.7874706  0.274101E-03  0.253E-01    9.97       1.0  T
  14    -23.7890867 -0.161614E-02  0.400E-02    9.96       1.0  T
  15    -23.7885180  0.568768E-03  0.153E-01    9.97       1.0  T
  16    -23.7890944 -0.576469E-03  0.335E-02    9.96       1.0  T
  17    -23.7891120 -0.175775E-04  0.191E-02    9.96       1.2  T
  18    -23.7891189 -0.683988E-05  0.993E-03    9.96       2.3  T
  19    -23.7891212 -0.229919E-05  0.283E-03    9.96       7.9  T
  20    -23.7891213 -0.170990E-06  0.101E-03    9.96      22.1  T
  21    -23.7891213 -0.116075E-07  0.766E-04    9.96      29.2  T
  22    -23.7891213 -0.141128E-07  0.174E-04    9.96     128.5  T
     SCC iter.                  ...        0 min,  0.078 sec
     gradient                   ...        0 min,  0.008 sec
------------------------------------------------------------------------
empirical IP shift (eV):    4.8455
delta SCC IP (eV):    5.3562
------------------------------------------------------------------------
           ------------------------------------------------- 
          |        vertical delta SCC EA calculation        |
           ------------------------------------------------- 

 iter      E             dE          RMSdq      gap      omega  full diag
   1    -24.0649261 -0.240649E+02  0.182E+00    0.68       0.0  T
   2    -24.1300835 -0.651574E-01  0.140E+00    0.37       1.0  T
   3    -24.1342693 -0.418584E-02  0.110E+00    0.48       1.0  T
   4    -24.1259169  0.835246E-02  0.103E+00    0.41       1.0  T
   5    -24.1389524 -0.130355E-01  0.329E-01    0.41       1.0  T
   6    -24.1398888 -0.936416E-03  0.619E-02    0.39       1.0  T
   7    -24.1398934 -0.454255E-05  0.302E-02    0.39       1.0  T
   8    -24.1398963 -0.296411E-05  0.984E-03    0.39       2.3  T
   9    -24.1398966 -0.305672E-06  0.309E-03    0.39       7.2  T
  10    -24.1398967 -0.329160E-07  0.803E-04    0.39      27.9  T
  11    -24.1398967 -0.906635E-09  0.321E-04    0.39      69.7  T
     SCC iter.                  ...        0 min,  0.052 sec
     gradient                   ...        0 min,  0.008 sec
------------------------------------------------------------------------
empirical EA shift (eV):    4.8455
delta SCC EA (eV):   -5.5021
------------------------------------------------------------------------
           -------------------------------------------------
          |                Property Printout                |
           -------------------------------------------------

    * Orbital Energies and Occupations

         #    Occupation            Energy/Eh            Energy/eV
      -------------------------------------------------------------
         1        2.0000           -0.5953445             -16.2001
       ...           ...                  ...                  ...
        11        2.0000           -0.4767081             -12.9719
        12        2.0000           -0.4546550             -12.3718
        13        2.0000           -0.4500481             -12.2464
        14        2.0000           -0.4354079             -11.8481
        15        2.0000           -0.4334799             -11.7956
        16        2.0000           -0.4305648             -11.7163
        17        2.0000           -0.4209282             -11.4540
        18        2.0000           -0.4009078             -10.9093
        19        2.0000           -0.3927278             -10.6867
        20        2.0000           -0.3250494              -8.8450
        21        2.0000           -0.3151851              -8.5766
        22        2.0000           -0.2933546              -7.9826
        23        0.9995            0.0424208               1.1543 (HOMO)
        24        0.0005            0.0567233               1.5435 (LUMO)
        25                          0.0757570               2.0615
        26                          0.1058448               2.8802
        27                          0.1148594               3.1255
        28                          0.1200083               3.2656
        29                          0.1305760               3.5532
        30                          0.1501193               4.0850
        31                          0.1573730               4.2823
        32                          0.1698799               4.6227
        33                          0.1749405               4.7604
        34                          0.2030592               5.5255
       ...                                ...                  ...
        41                          0.3636344               9.8950
      -------------------------------------------------------------
                  HL-Gap            0.0143025 Eh            0.3892 eV
             Fermi-level           -0.0379474 Eh           -1.0326 eV

 * generalized Born model for continuum solvation

     #   Z     Born rad/Å   SASA/Å²    H-bond
     1   7 N        2.619    12.416    -0.000
     2   6 C        2.786     1.017    -0.000
     3   6 C        2.878     0.446    -0.000
     4   7 N        2.973     0.089    -0.000
     5   6 C        2.878     0.084    -0.000
     6   6 C        2.787     1.360    -0.000
     7   7 N        2.608    14.296    -0.000
     8   1 H        2.103    29.465    -0.040
     9   1 H        2.166    17.316    -0.024
    10   1 H        2.304    25.190    -0.034
    11   1 H        2.310    22.305    -0.030
    12   1 H        2.368    16.807    -0.023
    13   1 H        2.348    22.457    -0.031
    14   1 H        2.318    11.730    -0.016
    15   1 H        2.365    16.414    -0.022
    16   1 H        2.352    16.767    -0.023
    17   1 H        2.325    20.162    -0.028
    18   1 H        2.323    24.177    -0.033
    19   1 H        2.101    29.404    -0.040
    20   1 H        2.146    21.991    -0.030

 total SASA / Å² :      303.891

     #   Z          covCN         q      C6AA      α(0)
     1   7 N        2.623    -0.412    30.719     8.232
     2   6 C        3.732     0.021    20.303     6.431
     3   6 C        3.743     0.034    20.076     6.392
     4   7 N        2.693    -0.322    28.276     7.898
     5   6 C        3.735     0.037    20.037     6.388
     6   6 C        3.731     0.027    20.215     6.418
     7   7 N        2.625    -0.436    31.386     8.320
     8   1 H        0.858     0.081     1.978     2.203
     9   1 H        0.854     0.055     2.281     2.367
    10   1 H        0.923    -0.032     3.687     3.003
    11   1 H        0.922    -0.010     3.233     2.812
    12   1 H        0.922    -0.009     3.216     2.805
    13   1 H        0.920    -0.068     4.554     3.338
    14   1 H        0.860     0.095     1.842     2.126
    15   1 H        0.921    -0.041     3.883     3.082
    16   1 H        0.911    -0.042     3.899     3.089
    17   1 H        0.916    -0.041     3.881     3.081
    18   1 H        0.924    -0.010     3.239     2.814
    19   1 H        0.855     0.007     2.954     2.693
    20   1 H        0.859     0.065     2.158     2.301

 Mol. C6AA /au·bohr⁶  :       3266.182965
 Mol. C8AA /au·bohr⁸  :      63948.290224
 Mol. α(0) /au        :         85.792536


Wiberg/Mayer (AO) data.
largest (>0.10) Wiberg bond orders for each atom

 ---------------------------------------------------------------------------
     #   Z sym  total        # sym  WBO       # sym  WBO       # sym  WBO
 ---------------------------------------------------------------------------
     1   7 N    2.866 --     2 C    0.943     8 H    0.925     9 H    0.871
     2   6 C    3.950 --     3 C    1.002    11 H    0.972    10 H    0.960
                             1 N    0.943
     3   6 C    3.982 --     2 C    1.002     4 N    0.973    12 H    0.968
                            13 H    0.933
     4   7 N    3.057 --     3 C    0.973     5 C    0.929    14 H    0.919
     5   6 C    3.990 --     6 C    1.027    15 H    0.959    16 H    0.954
                             4 N    0.929
     6   6 C    3.978 --     5 C    1.027    18 H    0.965    17 H    0.962
                             7 N    0.899
     7   7 N    2.799 --    20 H    0.916     6 C    0.899    19 H    0.857
     8   1 H    0.963 --     1 N    0.925
     9   1 H    0.954 --     1 N    0.871
    10   1 H    0.990 --     2 C    0.960
    11   1 H    0.998 --     2 C    0.972
    12   1 H    1.000 --     3 C    0.968
    13   1 H    0.992 --     3 C    0.933
    14   1 H    0.990 --     4 N    0.919
    15   1 H    0.998 --     5 C    0.959
    16   1 H    0.998 --     5 C    0.954
    17   1 H    0.998 --     6 C    0.962
    18   1 H    0.999 --     6 C    0.965
    19   1 H    0.924 --     7 N    0.857
    20   1 H    0.971 --     7 N    0.916
 ---------------------------------------------------------------------------

Topologies differ in total number of bonds
Writing topology from bond orders to xtbtopo.mol

molecular dipole:
                 x           y           z       tot (Debye)
 q only:        1.045      -0.347       0.357
   full:        1.358      -0.835       0.859       4.603
molecular quadrupole (traceless):
                xx          xy          yy          xz          yz          zz
 q only:      -21.283      -1.299      10.465       5.009       2.164      10.819
  q+dip:      -24.768       0.898      12.687       6.464       4.095      12.081
   full:      -23.541       1.159      12.019       5.964       4.241      11.522


           -------------------------------------------------
          | TOTAL ENERGY              -23.880744236440 Eh   |
          | GRADIENT NORM               0.200240433852 Eh/α |
          | HOMO-LUMO GAP               0.389189906026 eV   |
           -------------------------------------------------

------------------------------------------------------------------------
 * finished run on 2024/07/09 at 16:35:45.176     
------------------------------------------------------------------------
 total:
 * wall-time:     0 d,  0 h,  0 min,  0.223 sec
 *  cpu-time:     0 d,  0 h,  0 min,  3.086 sec
 * ratio c/w:    13.863 speedup
 SCF:
 * wall-time:     0 d,  0 h,  0 min,  0.205 sec
 *  cpu-time:     0 d,  0 h,  0 min,  2.851 sec
 * ratio c/w:    13.927 speedup

