      -----------------------------------------------------------      
     |                   =====================                   |     
     |                           x T B                           |     
     |                   =====================                   |     
     |                         S. Grimme                         |     
     |          Mulliken Center for Theoretical Chemistry        |     
     |                    University of Bonn                     |     
      -----------------------------------------------------------      

   * xtb version 6.4.0 (d4b70c2) compiled by 'ehlert@majestix' on 2021-02-01

   xtb is free software: you can redistribute it and/or modify it under
   the terms of the GNU Lesser General Public License as published by
   the Free Software Foundation, either version 3 of the License, or
   (at your option) any later version.
   
   xtb is distributed in the hope that it will be useful,
   but WITHOUT ANY WARRANTY; without even the implied warranty of
   MERCHANTABILITY or FITNESS FOR A PARTICULAR PURPOSE.  See the
   GNU Lesser General Public License for more details.
   
   Cite this work as:
   * C. Bannwarth, E. Caldeweyher, S. Ehlert, A. Hansen, P. Pracht,
     J. Seibert, S. Spicher, S. Grimme, WIREs Comput. Mol. Sci., 2020,
     e01493. DOI: 10.1002/wcms.1493
   
   for GFN2-xTB:
   * C. Bannwarth, S. Ehlert and S. Grimme., J. Chem. Theory Comput., 2019,
     15, 1652-1671. DOI: 10.1021/acs.jctc.8b01176
   for GFN1-xTB:
   * S. Grimme, C. Bannwarth, P. Shushkov, J. Chem. Theory Comput., 2017,
     13, 1989-2009. DOI: 10.1021/acs.jctc.7b00118
   for GFN0-xTB:
   * P. Pracht, E. Caldeweyher, S. Ehlert, S. Grimme, ChemRxiv, 2019, preprint.
     DOI: 10.26434/chemrxiv.8326202.v1
   for GFN-FF:
   * S. Spicher and S. Grimme, Angew. Chem. Int. Ed., 2020, 59, 15665-15673.
     DOI: 10.1002/anie.202004239
   
   for DFT-D4:
   * E. Caldeweyher, C. Bannwarth and S. Grimme, J. Chem. Phys., 2017,
     147, 034112. DOI: 10.1063/1.4993215
   * E. Caldeweyher, S. Ehlert, A. Hansen, H. Neugebauer, S. Spicher,
     C. Bannwarth and S. Grimme, J. Chem. Phys., 2019, 150, 154122.
     DOI: 10.1063/1.5090222
   * E. Caldeweyher, J.-M. Mewes, S. Ehlert and S. Grimme, Phys. Chem. Chem. Phys.
     2020, 22, 8499-8512. DOI: 10.1039/D0CP00502A
   
   for sTDA-xTB:
   * S. Grimme and C. Bannwarth, J. Chem. Phys., 2016, 145, 054103.
     DOI: 10.1063/1.4959605
   
   in the mass-spec context:
   * V. Asgeirsson, C. Bauer and S. Grimme, Chem. Sci., 2017, 8, 4879.
     DOI: 10.1039/c7sc00601b
   * J. Koopman and S. Grimme, ACS Omega 2019, 4, 12, 15120-15133.
     DOI: 10.1021/acsomega.9b02011
   
   for metadynamics refer to:
   * S. Grimme, J. Chem. Theory Comput., 2019, 155, 2847-2862
     DOI: 10.1021/acs.jctc.9b00143
   
   with help from (in alphabetical order)
   P. Atkinson, C. Bannwarth, F. Bohle, G. Brandenburg, E. Caldeweyher
   M. Checinski, S. Dohm, S. Ehlert, S. Ehrlich, I. Gerasimov, J. Koopman
   C. Lavinge, S. Lehtola, F. März, M. Müller, F. Musil, H. Neugebauer
   J. Pisarek, P. Pracht, J. Seibert, P. Shushkov, S. Spicher, M. Stahn
   T. Strunk, J. Stückrath, T. Rose, and J. Unsleber
   
 * started run on 2021/07/14 at 17:50:20.311     

           -------------------------------------------------
          |                Calculation Setup                |
           -------------------------------------------------

          program call               : /home/atarzia/software/xtb-6.4.0/bin/xtb /home/atarzia/software/stk_optimizers/examples/output_directory/xtb_out/input_structure.xyz --gfn 2 --parallel 1 --etemp 300 --chrg 0 --uhf 0 -I det_control.in
          coordinate file            : /home/atarzia/software/stk_optimizers/examples/output_directory/xtb_out/input_structure.xyz
          omp threads                :                     1
          number of atoms            :                    20
          number of electrons        :                    44
          charge                     :                     0
          spin                       :                   0.0
          first test random number   :      0.95033365617430

   ID    Z sym.   atoms
    1    7 N      1, 4, 7
    2    6 C      2, 3, 5, 6
    3    1 H      8-20

           -------------------------------------------------
          |                 G F N 2 - x T B                 |
           -------------------------------------------------

        Reference                      10.1021/acs.jctc.8b01176
      * Hamiltonian:
        H0-scaling (s, p, d)           1.850000    2.230000    2.230000
        zeta-weighting                 0.500000
      * Dispersion:
        s8                             2.700000
        a1                             0.520000
        a2                             5.000000
        s9                             5.000000
      * Repulsion:
        kExp                           1.500000    1.000000
        rExp                           1.000000
      * Coulomb:
        alpha                          2.000000
        third order                    shell-resolved
        anisotropic                    true
        a3                             3.000000
        a5                             4.000000
        cn-shift                       1.200000
        cn-exp                         4.000000
        max-rad                        5.000000


          ...................................................
          :                      SETUP                      :
          :.................................................:
          :  # basis functions                  41          :
          :  # atomic orbitals                  41          :
          :  # shells                           27          :
          :  # electrons                        44          :
          :  max. iterations                   250          :
          :  Hamiltonian                  GFN2-xTB          :
          :  restarted?                      false          :
          :  GBSA solvation                  false          :
          :  PC potential                    false          :
          :  electronic temp.          300.0000000     K    :
          :  accuracy                    1.0000000          :
          :  -> integral cutoff          0.2500000E+02      :
          :  -> integral neglect         0.1000000E-07      :
          :  -> SCF convergence          0.1000000E-05 Eh   :
          :  -> wf. convergence          0.1000000E-03 e    :
          :  Broyden damping             0.4000000          :
          ...................................................

 iter      E             dE          RMSdq      gap      omega  full diag
   1    -24.1176401 -0.241176E+02  0.325E+00    9.20       0.0  T
   2    -24.1492566 -0.316165E-01  0.186E+00    9.32       1.0  T
   3    -24.1505485 -0.129182E-02  0.668E-01    9.25       1.0  T
   4    -24.1507142 -0.165766E-03  0.849E-02    9.18       1.0  T
   5    -24.1507290 -0.147326E-04  0.444E-02    9.18       1.0  T
   6    -24.1507308 -0.184487E-05  0.715E-03    9.19       3.1  T
   7    -24.1507310 -0.201949E-06  0.252E-03    9.19       8.9  T
   8    -24.1507310 -0.718309E-08  0.555E-04    9.19      40.3  T
   9    -24.1507310 -0.474177E-09  0.175E-04    9.19     127.6  T

   *** convergence criteria satisfied after 9 iterations ***

         #    Occupation            Energy/Eh            Energy/eV
      -------------------------------------------------------------
         1        2.0000           -0.6402880             -17.4231
       ...           ...                  ...                  ...
        16        2.0000           -0.4674942             -12.7212
        17        2.0000           -0.4564967             -12.4219
        18        2.0000           -0.4371134             -11.8945
        19        2.0000           -0.4334966             -11.7960
        20        2.0000           -0.3650890              -9.9346
        21        2.0000           -0.3643886              -9.9155
        22        2.0000           -0.3378712              -9.1939 (HOMO)
        23                         -0.0003226              -0.0088 (LUMO)
        24                          0.0180202               0.4904
        25                          0.0394586               1.0737
        26                          0.0693448               1.8870
        27                          0.0790276               2.1504
       ...                                ...                  ...
        41                          0.3226274               8.7791
      -------------------------------------------------------------
                  HL-Gap            0.3375487 Eh            9.1852 eV
             Fermi-level           -0.1690969 Eh           -4.6014 eV

 SCC (total)                   0 d,  0 h,  0 min,  0.011 sec
 SCC setup                      ...        0 min,  0.000 sec (  1.319%)
 Dispersion                     ...        0 min,  0.000 sec (  0.941%)
 classical contributions        ...        0 min,  0.000 sec (  0.248%)
 integral evaluation            ...        0 min,  0.002 sec ( 18.952%)
 iterations                     ...        0 min,  0.004 sec ( 35.242%)
 molecular gradient             ...        0 min,  0.005 sec ( 42.154%)
 printout                       ...        0 min,  0.000 sec (  0.895%)

         :::::::::::::::::::::::::::::::::::::::::::::::::::::
         ::                     SUMMARY                     ::
         :::::::::::::::::::::::::::::::::::::::::::::::::::::
         :: total energy             -23.891578359043 Eh    ::
         :: gradient norm              0.099909504889 Eh/a0 ::
         :: HOMO-LUMO gap              9.185167200850 eV    ::
         ::.................................................::
         :: SCC energy               -24.150731007126 Eh    ::
         :: -> isotropic ES            0.029288053555 Eh    ::
         :: -> anisotropic ES          0.010566721792 Eh    ::
         :: -> anisotropic XC          0.024230789282 Eh    ::
         :: -> dispersion             -0.011509669849 Eh    ::
         :: repulsion energy           0.259153717250 Eh    ::
         :: add. restraining           0.000000000000 Eh    ::
         :: total charge              -0.000000000000 e     ::
         :::::::::::::::::::::::::::::::::::::::::::::::::::::

           -------------------------------------------------
          |                Property Printout                |
           -------------------------------------------------

    * Orbital Energies and Occupations

         #    Occupation            Energy/Eh            Energy/eV
      -------------------------------------------------------------
         1        2.0000           -0.6402880             -17.4231
       ...           ...                  ...                  ...
        10        2.0000           -0.5226974             -14.2233
        11        2.0000           -0.5180620             -14.0972
        12        2.0000           -0.4922220             -13.3940
        13        2.0000           -0.4890547             -13.3079
        14        2.0000           -0.4780970             -13.0097
        15        2.0000           -0.4719235             -12.8417
        16        2.0000           -0.4674942             -12.7212
        17        2.0000           -0.4564967             -12.4219
        18        2.0000           -0.4371134             -11.8945
        19        2.0000           -0.4334966             -11.7960
        20        2.0000           -0.3650890              -9.9346
        21        2.0000           -0.3643886              -9.9155
        22        2.0000           -0.3378712              -9.1939 (HOMO)
        23                         -0.0003226              -0.0088 (LUMO)
        24                          0.0180202               0.4904
        25                          0.0394586               1.0737
        26                          0.0693448               1.8870
        27                          0.0790276               2.1504
        28                          0.0822327               2.2377
        29                          0.0973429               2.6488
        30                          0.1161952               3.1618
        31                          0.1221754               3.3246
        32                          0.1393122               3.7909
        33                          0.1428681               3.8876
       ...                                ...                  ...
        41                          0.3226274               8.7791
      -------------------------------------------------------------
                  HL-Gap            0.3375487 Eh            9.1852 eV
             Fermi-level           -0.1690969 Eh           -4.6014 eV

     #   Z          covCN         q      C6AA      α(0)
     1   7 N        2.623    -0.334    28.600     7.942
     2   6 C        3.732     0.013    20.442     6.454
     3   6 C        3.743     0.017    20.352     6.436
     4   7 N        2.693    -0.254    26.601     7.660
     5   6 C        3.735     0.023    20.276     6.426
     6   6 C        3.731     0.019    20.351     6.439
     7   7 N        2.625    -0.330    28.502     7.929
     8   1 H        0.858     0.129     1.556     1.954
     9   1 H        0.854     0.141     1.466     1.897
    10   1 H        0.923     0.018     2.768     2.602
    11   1 H        0.922     0.039     2.466     2.456
    12   1 H        0.922     0.030     2.580     2.512
    13   1 H        0.920    -0.002     3.089     2.749
    14   1 H        0.860     0.142     1.454     1.889
    15   1 H        0.921     0.004     2.993     2.705
    16   1 H        0.911     0.013     2.843     2.638
    17   1 H        0.916     0.016     2.796     2.615
    18   1 H        0.924     0.051     2.305     2.374
    19   1 H        0.855     0.128     1.564     1.959
    20   1 H        0.859     0.137     1.494     1.915

 Mol. C6AA /au·bohr⁶  :       2824.761117
 Mol. C8AA /au·bohr⁸  :      56828.322751
 Mol. α(0) /au        :         79.551940


Wiberg/Mayer (AO) data.
largest (>0.10) Wiberg bond orders for each atom

 ---------------------------------------------------------------------------
     #   Z sym  total        # sym  WBO       # sym  WBO       # sym  WBO
 ---------------------------------------------------------------------------
     1   7 N    2.990 --     2 C    1.019     8 H    0.973     9 H    0.960
     2   6 C    3.989 --     1 N    1.019     3 C    1.003    10 H    0.977
                            11 H    0.970
     3   6 C    3.989 --     4 N    1.022     2 C    1.003    12 H    0.968
                            13 H    0.960
     4   7 N    3.096 --     5 C    1.027     3 C    1.022    14 H    0.949
     5   6 C    3.987 --     4 N    1.027     6 C    1.004    15 H    0.961
                            16 H    0.959
     6   6 C    3.986 --     7 N    1.021     5 C    1.004    17 H    0.974
                            18 H    0.969
     7   7 N    2.998 --     6 C    1.021    19 H    0.972    20 H    0.965
     8   1 H    0.983 --     1 N    0.973
     9   1 H    0.980 --     1 N    0.960
    10   1 H    0.999 --     2 C    0.977
    11   1 H    0.998 --     2 C    0.970
    12   1 H    0.999 --     3 C    0.968
    13   1 H    1.000 --     3 C    0.960
    14   1 H    0.980 --     4 N    0.949
    15   1 H    1.000 --     5 C    0.961
    16   1 H    1.000 --     5 C    0.959
    17   1 H    1.000 --     6 C    0.974
    18   1 H    0.997 --     6 C    0.969
    19   1 H    0.984 --     7 N    0.972
    20   1 H    0.981 --     7 N    0.965
 ---------------------------------------------------------------------------

Topologies differ in total number of bonds
Writing topology from bond orders to xtbtopo.mol

molecular dipole:
                 x           y           z       tot (Debye)
 q only:        0.135      -0.185       0.216
   full:        0.454      -0.709       0.775       2.910
molecular quadrupole (traceless):
                xx          xy          yy          xz          yz          zz
 q only:        0.173       2.074       0.001       0.110       1.457      -0.174
  q+dip:       -2.475       5.566       2.187       1.125       3.656       0.288
   full:       -1.329       5.617       1.468       0.742       3.636      -0.138


           -------------------------------------------------
          | TOTAL ENERGY              -23.891578359043 Eh   |
          | GRADIENT NORM               0.099909504889 Eh/α |
          | HOMO-LUMO GAP               9.185167200850 eV   |
           -------------------------------------------------

------------------------------------------------------------------------
 * finished run on 2021/07/14 at 17:50:20.374     
------------------------------------------------------------------------
 total:
 * wall-time:     0 d,  0 h,  0 min,  0.063 sec
 *  cpu-time:     0 d,  0 h,  0 min,  0.021 sec
 * ratio c/w:     0.331 speedup
 SCF:
 * wall-time:     0 d,  0 h,  0 min,  0.011 sec
 *  cpu-time:     0 d,  0 h,  0 min,  0.011 sec
 * ratio c/w:     1.000 speedup

